file 68484582 1453153275                                        
version 2
run General-0-20160119-04:40:41-3940
attr configname General
attr datetime 20160119-04:40:41
attr experiment General
attr inifile omnetpp.ini
attr iterationvars ""
attr iterationvars2 $repetition=0
attr measurement ""
attr network MM1
attr processid 3940
attr repetition 0
attr replication #0
attr resultdir results
attr runnumber 0
attr seedset 0

vector 0  MM1.gen  gene_time  ETV
vector 1  MM1.queue  queue_length  ETV
vector 2  MM1.queue  wait_length  ETV
vector 3  MM1.sink  Delay  ETV
vector 4  MM1.sink  departure_time  ETV
vector 5  MM1.sink  line_delay  ETV
0	600 5170721 1 466033 3.183498018263 464695.563625671162 116509 1.3255536e-005 57.124741223544 464700.88310009 3696213.0422292
1	5171321 5393037 2 466034 3.183498018263 464695.563625671162 116509 0 0.42292490118577 38873.219437313 12986.918322451
2	10564358 5505686 2 466034 3.183498018263 464695.563625671162 116509 0 0.16302186878728 9918.5409008031 852.1424806676
3	16070044 5161475 4 466032 4.43942877631 464693.591969790616 116508 2.9214851e-005 17.104146459106 155038.49310814 412246.90908537
4	21231519 5171014 4 466032 4.43942877631 464693.591969790616 116508 2.9549206e-005 60.065480796912 464693.59196979 3692131.2996388
5	26402533 5277856 4 466032 4.43942877631 464693.591969790616 116508 0.85518033561883 1.4863895641238 154720.60334193 205533.46256218
0	31680389 5226548 466037 932063 464704.066598120104 930594.663616691393 116508 3.560462e-005 52.004964278436 465892.40455433 3729556.7927151
1	36906937 5449984 466038 932064 464704.066598120104 930594.663616691393 116508 0.32985531863265 0.33504431535422 38747.855206934 12886.915804799
2	42356921 5566405 466038 932064 464704.066598120104 930594.663616691393 116508 0.081082925202044 0.084543773630033 9654.4096415278 800.13371330202
3	47923326 5216966 466036 932068 464696.476387297818 930596.059074451388 116509 1.4627692e-005 13.830752505877 156199.0423347 419310.2248553
4	53140292 5226332 466036 932068 464696.476387297818 930596.059074451388 116509 1.3541754e-005 47.521937366006 465902.46710467 3727527.0012556
5	58366624 5333624 466036 932068 464696.476387297818 930596.059074451388 116509 1.3284627433103 1.3376211844307 155313.02088188 207041.8418064
0	63700248 781018 932069 1001665 930596.471152452853 1000004.171063310519 17400 0.000102717816 40.157257319229 69407.846215936 548946.3303033
1	64481266 814301 932070 1001660 930596.471152452853 999991.787312301821 17399 0.33348579411973 0.33434886525036 5809.0047278658 1939.4530931173
2	65295567 831675 932070 1001660 930596.471152452853 999991.787312301821 17399 0.083505197505198 0.08401309607075 1457.0977793901 122.02636872059
3	66127242 779502 932072 1001664 930597.53581765447 999992.985657481656 17399 9.8129193e-005 14.299658439449 23007.331295819 61910.180558033
4	66906744 780900 932072 1001664 930597.53581765447 999992.985657481656 17399 0.001042957682 41.272226178429 69396.92658303 549042.97119915
5	67687644 796938 932072 1001664 930597.53581765447 999992.985657481656 17399 1.3344508171479 1.3358861967074 23230.880856355 31017.521468429
