file 5821185046 1458637006                                      
version 2
run Linear_mm1-0-20160322-14:54:48-7240
attr configname Linear_mm1
attr datetime 20160322-14:54:48
attr experiment Linear_mm1
attr inifile omnetpp.ini
attr iterationvars ""
attr iterationvars2 $repetition=0
attr measurement ""
attr network Linear_mm1
attr processid 7240
attr repetition 0
attr replication #0
attr resultdir results
attr runnumber 0
attr seedset 0

vector 0  Linear_mm1.gen  gene_time  ETV
vector 1  Linear_mm1.queue  queue_length  ETV
vector 2  Linear_mm1.queue  wait_length  ETV
vector 3  Linear_mm1.queue1  queue_length  ETV
vector 4  Linear_mm1.queue1  wait_length  ETV
vector 5  Linear_mm1.queue2  queue_length  ETV
vector 6  Linear_mm1.queue2  wait_length  ETV
vector 7  Linear_mm1.queue3  queue_length  ETV
vector 8  Linear_mm1.queue3  wait_length  ETV
vector 9  Linear_mm1.queue4  queue_length  ETV
vector 10  Linear_mm1.queue4  wait_length  ETV
vector 11  Linear_mm1.sink  Delay  ETV
vector 12  Linear_mm1.sink  departure_time  ETV
vector 13  Linear_mm1.sink  line_delay  ETV
0	1042 2157318 1 599185 0.414991705952 26027.781331101599 49985 1.5233458e-005 7.446618052354 26028.804085659 27080.485247091
1	2158360 2206086 2 599186 0.414991705952 26027.781331101599 49985 0 24.509164006149 879863.36157276 16352725.103617
2	4364446 2206230 2 599186 0.414991705952 26027.781331101599 49985 0 23.551909660636 832230.87082004 14720119.608905
3	6570676 2205846 6 599202 1.042957084975 26028.659736759245 49973 0 19.921779872626 783055.03405223 12689918.455743
4	8776522 2206023 6 599202 1.042957084975 26028.659736759245 49973 0 18.963499144292 735618.00391169 11245716.699042
5	10982545 2205845 12 599200 2.018729752917 26028.642156962492 49966 0 24.775693377537 1086079.1501129 23989526.116331
6	13188390 2205638 12 599200 2.018729752917 26028.642156962492 49966 0 23.812916093906 1038286.6760669 21954132.308906
7	15394028 2204362 18 599204 2.507232966113 26028.736201322214 49934 0 26.68893129771 1105428.8220502 25783018.300802
8	17598390 2204269 18 599204 2.507232966113 26028.736201322214 49934 0 25.736095965104 1057979.7926201 23719859.113235
9	19802659 2202463 24 599206 2.794992564554 26028.760146118121 49885 0 27.622425629291 956058.07828313 18472580.357651
10	22005122 2252352 24 599206 2.794992564554 26028.760146118121 49885 0 26.643020594966 908252.02248908 16684902.625171
11	24257474 2252114 54 599198 4.452448704518 26028.490745486162 49860 4.037456998566 136.08194713813 2787059.0968414 182666306.6343
12	26509588 2202364 54 599198 4.452448704518 26028.490745486162 49860 2.00549e-006 5.383845569423 26028.490745486 27175.023012474
13	28711952 2252171 54 599198 4.452448704518 26028.490745486162 49860 4.037456998566 58.934451043022 2523762.8927645 129913333.9785
0	30964123 2201811 599213 1198357 26029.219077364222 51899.82361794405 49918 1.5835157e-005 5.104398686793 25871.062653688 26681.082900126
1	33165934 2251572 599214 1198358 26029.219077364222 51899.82361794405 49918 21.526399476914 24.967448254104 1155166.1018852 26779013.403389
2	35417506 2251490 599214 1198358 26029.219077364222 51899.82361794405 49918 20.569999851396 24.006332323016 1107330.188518 24610745.45694
3	37668996 2251428 599226 1198364 26029.528187401293 51900.04484141374 49913 17.669144656288 20.619273254059 926967.32239623 17249126.80262
4	39920424 2251522 599226 1198364 26029.528187401293 51900.04484141374 49913 16.711949324071 19.659161787489 879147.84304841 15518716.673133
5	42171946 2251016 599230 1198356 26029.577330736866 51899.820220911192 49903 23.088400483638 25.66458617254 1240996.2308757 30877303.846686
6	44422962 2251063 599230 1198356 26029.577330736866 51899.820220911192 49903 22.126116463201 24.699538473872 1192900.3068902 28531499.649375
7	46674025 2251726 599208 1198342 26028.847129946954 51899.009964884318 49917 19.805307970165 25.590759641762 1085957.2298326 23750933.28831
8	48925751 2251787 599208 1198342 26028.847129946954 51899.009964884318 49917 18.850295538772 24.629578828465 1038172.2353448 21717296.618718
9	51177538 2253659 599222 1198366 26029.35633286657 51900.083159672241 49956 19.296169195473 22.777003963885 1082933.6365816 23503853.039394
10	53431197 2303405 599222 1198366 26029.35633286657 51900.083159672241 49956 18.333532541641 21.811990750936 1034814.3504459 21463954.018396
11	55734602 2303996 599210 1198360 26029.037077664232 51899.949249096904 49973 2.31481589872 135.25326795833 3323379.9108969 254166377.07619
12	58038598 2254337 599210 1198360 26029.037077664232 51899.949249096904 49973 6.770877e-006 5.528292031393 25871.458503611 26888.094893966
13	60292935 2304188 599210 1198360 26029.037077664232 51899.949249096904 49973 55.64676190555 61.317826867398 2875820.5126701 165640250.67288
0	62597123 2234483 1198369 1797537 51900.281731052441 78067.72056959028 49905 1.1562454e-005 5.091133257394 26169.475379671 27336.962878157
1	64831606 2284633 1198370 1797538 51900.281731052441 78067.72056959028 49905 23.231087130147 25.585404590433 1224777.5989164 30078474.737522
2	67116239 2284373 1198370 1797538 51900.281731052441 78067.72056959028 49905 22.272089006111 24.623660635869 1176856.9646687 27772295.583131
3	69400612 2284714 1198374 1797566 51900.513485539514 78068.897840475978 49919 20.25358027932 22.076139447989 1052693.4411215 22213434.115131
4	71685326 2285032 1198374 1797566 51900.513485539514 78068.897840475978 49919 19.295995491357 21.115640311608 1004803.3283442 20239535.630372
5	73970358 2285789 1198372 1797568 51900.30411899406 78068.928810139703 49934 23.201422183914 25.205736152754 1200706.2898992 28885705.411246
6	76256147 2285904 1198372 1797562 51900.30411899406 78068.855231010544 49933 22.241709699017 24.241232049866 1152668.0006007 26622138.141389
7	78542051 2286184 1198402 1797550 51901.534700432252 78068.348417022848 49946 24.0648412887 25.555221728158 1235017.5355438 30545658.25101
8	80828235 2286277 1198402 1797550 51901.534700432252 78068.348417022848 49946 23.106563848624 24.593788807435 1187098.69728 28221822.430319
9	83114512 2286657 1198368 1797544 51900.134435025271 78067.993287631377 49952 20.76801164757 22.247611225737 1076060.5565051 23188115.907416
10	85401169 2336614 1198368 1797544 51900.134435025271 78067.993287631377 49952 19.806958209793 21.283497926724 1027976.5815635 21162722.658214
11	87737783 2336243 1198382 1797564 51900.796411011409 78068.867324695233 49945 3.284721438738 139.72605327243 2914843.0096904 210630941.5755
12	90074026 2286388 1198382 1797564 51900.796411011409 78068.867324695233 49945 3.1926989e-005 5.675545842733 26168.918075598 27228.576384946
13	92360414 2336374 1198382 1797564 51900.796411011409 78068.867324695233 49945 59.167512437126 61.557277206996 3018296.3346015 182425671.43153
0	94696788 2244978 1797579 2396717 78069.757110723113 104067.436779019503 49962 6.866807e-006 5.9727583284 25999.039046341 27128.46416381
1	96941766 2294828 1797580 2396718 78069.757110723113 104067.436779019503 49962 24.16949119297 26.691527509601 1280739.6186846 32866356.452587
2	99236594 2294897 1797580 2396718 78069.757110723113 104067.436779019503 49962 23.210381441816 25.729731163403 1232727.6209684 30450909.497643
3	101531491 2293682 1797570 2396706 78069.099635984961 104066.828383408438 49935 21.336905826423 22.380207260594 1089389.5537499 23770089.36005
4	103825173 2293735 1797570 2396706 78069.099635984961 104066.828383408438 49935 20.378527729709 21.420735474987 1041496.2060169 21726319.159625
5	106118908 2293024 1797578 2396726 78069.675584527024 104067.688176231942 49919 22.816365790246 23.847784411106 1160579.9294037 26985888.901122
6	108411932 2292934 1797568 2396726 78068.928810139703 104067.688176231942 49920 21.857057491508 22.888403540825 1112706.953698 24805281.901375
7	110704866 2292983 1797598 2396714 78070.879629426749 104067.202473098113 49921 23.681996615227 24.947155469101 1221828.8693444 29911565.297356
8	112997849 2293032 1797598 2396714 78070.879629426749 104067.202473098113 49921 22.722739062078 23.986910070328 1173917.1125587 27612236.786318
9	115290881 2292785 1797590 2396728 78070.359296782228 104067.706573248501 49915 21.11263450751 22.111291167945 1083551.1595068 23525329.173108
10	117583666 2342779 1797590 2396728 78070.359296782228 104067.706573248501 49915 20.152436465979 21.149381210624 1035568.4325835 21488232.223199
11	119926445 2343191 1797574 2396722 78069.381427963391 104067.626001709683 49928 4.425090102102 117.34935027196 3080588.7823158 213086503.57644
12	122269636 2293305 1797574 2396722 78069.381427963391 104067.626001709683 49928 4.535445e-006 5.276306154626 25998.758677015 27031.200922883
13	124562941 2343315 1797574 2396722 78069.381427963391 104067.626001709683 49928 59.744471858764 61.789317434005 3042015.0806104 185355246.02885
0	126906256 2285844 2396745 2995937 104068.796157064032 130266.49893213063 49937 1.8898538e-005 5.327466516862 26199.359596146 27501.213759996
1	129192100 2335952 2396746 2995938 104068.796157064032 130266.49893213063 49937 24.640855082156 26.364742158639 1272677.4218767 32444965.919512
2	131528052 2335876 2396746 2995938 104068.796157064032 130266.49893213063 49937 23.679127937943 25.402244536326 1224624.7870053 30041890.934845
3	133863928 2336952 2396736 2995924 104068.05538632789 130266.159914570936 49956 20.284890426759 21.782554345419 1049966.0693589 22077755.044156
4	136200880 2336716 2396736 2995924 104068.05538632789 130266.159914570936 49956 19.32785066641 20.822644703752 1002088.3129079 20111032.931963
5	138537596 2337497 2396742 2995956 104068.295540034563 130267.365552654076 49971 22.215686986849 23.27173222504 1128165.4067951 25474417.124325
6	140875093 2337553 2396742 2995956 104068.295540034563 130267.365552654076 49971 21.257191180863 22.311314578352 1080242.8550115 23356521.892636
7	143212646 2336697 2396730 2995954 104067.733824588544 130267.27727575189 49953 23.232279359274 24.191394615991 1185373.8777691 28131492.045703
8	145549343 2336688 2396730 2995954 104067.733824588544 130267.27727575189 49953 22.272934363244 23.231832330957 1137444.2664884 25902758.676207
9	147886031 2334608 2396734 2995944 104067.877822188972 130266.823840566708 49911 21.348307147599 22.070214532677 1079661.7421336 23356580.031122
10	150220639 2384699 2396734 2995944 104067.877822188972 130266.823840566708 49911 20.386702609185 21.107646333053 1031646.4679522 21325459.385913
11	152605338 2383399 2396740 2995952 104068.239618329317 130267.261676458388 49886 4.165383087982 97.449981681438 2486630.5273903 137026660.85721
12	154988737 2333567 2396740 2995952 104068.239618329317 130267.261676458388 49886 3.50293e-007 5.571653572505 26199.635674749 27517.540655987
13	157322304 2383565 2396740 2995952 104068.239618329317 130267.261676458388 49886 58.461764300666 60.709080695958 2980185.0408805 178060456.53749
0	159705869 2287982 2995977 3595101 130268.155753210001 156378.633542996447 49984 7.510382e-006 6.603019975291 26110.774740256 27322.638639047
1	161993851 2338057 2995978 3595102 130268.155753210001 156378.633542996447 49984 24.230307517748 25.10935589154 1229949.4137277 30269059.234927
2	164331908 2338034 2995978 3595096 130268.155753210001 156378.519938570113 49983 23.269214288897 24.147387812648 1181869.2119262 27949654.833251
3	166669942 2335579 2995960 3595100 130267.564976403922 156378.623103574693 49932 20.029925440932 21.097358580895 1035576.4390536 21481959.599087
4	169005521 2335587 2995960 3595100 130267.564976403922 156378.623103574693 49932 19.073705397701 20.139814233851 987794.46455664 19545705.786142
5	171341108 2334758 2995962 3595098 130267.660048851551 156378.61225054175 49913 21.824604174285 22.336709190215 1103316.8242685 24389798.544383
6	173675866 2334806 2995962 3595098 130267.660048851551 156378.61225054175 49913 20.866550187585 21.377724703082 1055478.591351 22320734.955418
7	176010672 2333805 2995958 3595092 130267.471016851293 156378.448074709798 49887 22.954274579025 24.032927601745 1171379.49034 27508649.319292
8	178344477 2333700 2995958 3595092 130267.471016851293 156378.448074709798 49887 21.995598894061 23.072797748442 1123528.7896434 25307409.444241
9	180678177 2335811 2996012 3595082 130270.068688210521 156378.121221256512 49935 21.36081644099 22.189694665145 1085258.2767577 23588578.899607
10	183013988 2385833 2996012 3595082 130270.068688210521 156378.121221256512 49935 20.399154715167 21.22723217998 1037231.357082 21547184.731528
11	185399821 2384949 2995966 3595094 130267.690165290534 156378.482934541323 49922 4.926263137194 143.17424908077 2990460.0412773 208163274.99644
12	187784770 2335207 2995966 3595094 130267.690165290534 156378.482934541323 49922 4.18282e-006 5.799442080237 26111.221258083 27452.20749903
13	190119977 2385120 2995966 3595094 130267.690165290534 156378.482934541323 49922 58.294606677933 59.403372132401 2938480.1165112 172967547.05143
0	192505097 2283249 3595113 4194323 156378.930493465991 182477.832085440704 49877 7.4166e-007 5.300355561513 26099.082986786 27240.625156097
1	194788346 2333138 3595114 4194324 156378.930493465991 182477.832085440704 49877 23.81588157737 24.377575041204 1201008.3881546 28920660.590624
2	197121484 2333270 3595102 4194324 156378.633542996447 182477.832085440704 49878 22.855369771066 23.416258511329 1153106.7362911 26659243.490103
3	199454754 2335496 3595106 4194326 156378.676967578551 182477.833004259934 49926 20.946644836877 22.390330368786 1084046.9984285 23545695.547445
4	201790250 2335455 3595106 4194326 156378.676967578551 182477.833004259934 49926 19.989743110945 21.432481172974 1036235.9746646 21515223.34009
5	204125705 2335975 3595134 4194318 156379.606010053829 182477.359953233492 49939 21.437539323575 21.863359462486 1080544.8567656 23380712.60202
6	206461680 2336122 3595134 4194318 156379.606010053829 182477.359953233492 49939 20.480133433052 20.90500399936 1032716.3062737 21356756.404177
7	208797802 2337887 3595104 4194310 156378.666255383404 182477.130330344866 49973 23.25016314988 24.203025957139 1182158.1413977 27968161.837039
8	211135689 2337645 3595104 4194310 156378.666255383404 182477.130330344866 49973 22.292616797975 23.24489831539 1134284.8169041 25749044.79609
9	213473334 2336531 3595110 4194314 156378.697596290507 182477.242419985196 49950 21.371972562386 22.080635273266 1086643.4921622 23641533.264869
10	215809865 2386441 3595110 4194314 156378.697596290507 182477.242419985196 49950 20.411252571046 21.119306455921 1038642.7173602 21599181.589499
11	218196306 2386113 3595108 4194328 156378.686073271785 182477.870434720733 49948 4.28956838602 131.79685462718 3189675.7849234 235271122.84239
12	220582419 2336265 3595108 4194328 156378.686073271785 182477.870434720733 49948 3.390724e-006 5.858317740203 26099.387500179 27248.551658169
13	222918684 2386296 3595108 4194320 156378.686073271785 182477.615054925552 49947 58.464552701283 59.671979470381 2944943.8668628 173643621.5776
0	225304980 2286249 4194331 4793483 182478.013480252043 208381.192457378026 49939 3.3341426e-005 6.222167280952 25904.133401573 26745.658289938
1	227591229 2335990 4194332 4793484 182478.013480252043 208381.192457378026 49939 23.797636577928 24.351817397192 1202583.3215826 28960194.681003
2	229927219 2335907 4194332 4793484 182478.013480252043 208381.192457378026 49939 22.837813622604 23.390801122533 1154621.3872573 26696307.545181
3	232263126 2336562 4194338 4793440 182478.238281484948 208379.514380274281 49948 22.123240031063 23.388005947377 1145248.8840849 26267489.279643
4	234599688 2336533 4194338 4793440 182478.238281484948 208379.514380274281 49948 21.165839439061 22.428888912239 1097370.4645843 24117768.87622
5	236936221 2336707 4194330 4793492 182477.930824746088 208381.450025800721 49955 21.19205219262 21.618772676255 1068868.8295478 22870811.736432
6	239272928 2336677 4194330 4793492 182477.930824746088 208381.450025800721 49955 20.235096509862 20.660804990734 1021035.5709925 20869669.233985
7	241609605 2333855 4194356 4793494 182478.714655287527 208381.524751388377 49889 23.63239711484 24.433835561018 1198265.8401432 28782926.620038
8	243943460 2333975 4194356 4793494 182478.714655287527 208381.524751388377 49889 22.674987316356 23.47532281464 1150477.9848199 26533097.656857
9	246277435 2334974 4194340 4793498 182478.389031889122 208381.818180528504 49912 21.702401567179 22.751261879158 1105202.6621026 24478613.97776
10	248612409 2384688 4194340 4793476 182478.389031889122 208381.104480947174 49911 20.741886957669 21.789740832403 1057219.8165104 22400209.062267
11	250997097 2385888 4194342 4793496 182478.480992045966 208381.7537861006 49942 7.052010118966 131.56653179611 3271606.4786239 252577876.85064
12	253382985 2336184 4194342 4793496 182478.480992045966 208381.7537861006 49942 5.126491e-006 5.598391959233 25903.88335138 26864.219974318
13	255719169 2386068 4194328 4793496 182477.870434720733 208381.7537861006 49943 59.098850277175 60.671602056635 2988351.5761919 178820694.43932
0	258105237 2288347 4793503 5392657 208382.14688182523 234432.883345502615 49988 1.632893e-006 7.033405718695 26051.505664076 27380.065067621
1	260393584 2338304 4793504 5392658 208382.14688182523 234432.883345502615 49988 23.738975071747 24.285968152452 1201048.8414319 28858220.857719
2	262731888 2338404 4793504 5392658 208382.14688182523 234432.883345502615 49988 22.779219072146 23.325778791257 1153051.3729683 26597860.539394
3	265070292 2336065 4793536 5392660 208382.988620359003 234433.035514822856 49944 23.055219208455 24.356050458207 1191838.3954484 28452004.415186
4	267406357 2336231 4793536 5392660 208382.988620359003 234433.035514822856 49944 22.09633369518 23.396254434262 1143926.9905859 26211289.672823
5	269742588 2333004 4793502 5392654 208381.975178628756 234432.769668409852 49875 21.27219560183 21.743837640697 1070531.7800747 22978780.730886
6	272075592 2333033 4793502 5392654 208381.975178628756 234432.769668409852 49875 20.314520456385 20.785319032348 1022758.1969501 20973686.13627
7	274408625 2336294 4793516 5392662 208382.688957801309 234433.147096924986 49944 23.382369937683 24.168139783123 1184632.9554415 28101141.70949
8	276744919 2336300 4793516 5392662 208382.688957801309 234433.147096924986 49944 22.424711449857 23.210133578077 1136806.1645765 25878111.326186
9	279081219 2336047 4793520 5392664 208382.783749577627 234433.297403068435 49936 22.362016920638 23.266602327826 1144786.0792286 26249245.741442
10	281417266 2385995 4793498 5392664 208381.818180528504 234433.297403068435 49937 21.401285387492 22.304731230306 1096800.7075673 24094727.434605
11	283803261 2383548 4793500 5392642 208381.900044605926 234432.483885714699 49896 1.831123231527 166.87369934232 3202394.3288566 250402051.85192
12	286186809 2333886 4793500 5392642 208381.900044605926 234432.483885714699 49896 9.31439e-007 6.659254723715 26050.730099614 27163.702868012
13	288520695 2383806 4793500 5392642 208381.900044605926 234432.483885714699 49896 59.840488804127 60.931568965192 3020888.1599994 182901508.55994
0	290904501 2284642 5392669 5991913 234433.652545900792 260430.732772923608 49909 8.16889e-006 5.519118658414 25997.523190496 27326.479585361
1	293189143 2334574 5392670 5991914 234433.652545900792 260430.732772923608 49909 23.788847231674 25.388397660066 1211198.9479077 29408733.38858
2	295523717 2334567 5392670 5991914 234433.652545900792 260430.732772923608 49909 22.828331649668 24.426607598551 1163243.4291567 27127205.201031
3	297858284 2336581 5392698 5991912 234435.134910845329 260430.697176518037 49953 24.036359456226 24.414753154411 1209458.2150251 29283808.995033
4	300194865 2336542 5392698 5991912 234435.134910845329 260430.697176518037 49953 23.077670440273 23.455649651204 1161558.7490157 27010261.441461
5	302531407 2339721 5392684 5991900 234434.271613772721 260430.312792985449 50016 21.581751116127 24.591931377243 1108019.1160568 24580857.223286
6	304871128 2339704 5392684 5991900 234434.271613772721 260430.312792985449 50016 20.623724129919 23.632460791718 1060078.4626786 22502696.054963
7	307210832 2339244 5392668 5991920 234433.58694434238 260430.908722102295 50006 22.852608671076 23.542697799227 1157926.3802051 26813960.764455
8	309550076 2339089 5392668 5991920 234433.58694434238 260430.908722102295 50006 21.894385361402 22.584138013898 1110014.6843944 24641004.343358
9	311889165 2332324 5392666 5991904 234433.333944361262 260430.456282455844 49858 22.424872002808 23.077496813618 1131359.1490718 25674265.572091
10	314221489 2381896 5392666 5991904 234433.333944361262 260430.456282455844 49858 21.464033696849 22.115953227905 1083443.9197498 23545760.065073
11	316603385 2383437 5392672 5991918 234433.734329216493 260430.800430142404 49886 8.330510214484 189.4869017654 4081885.2373448 431863227.55268
12	318986822 2333617 5392672 5991918 234433.734329216493 260430.800430142404 49886 7.50413e-007 5.480366783003 25998.316544428 27326.460293389
13	321320439 2383587 5392672 5991918 234433.734329216493 260430.800430142404 49886 60.100766363904 62.759218403882 3032191.7722805 184324849.00383
0	323704026 2284082 5991923 6591045 260431.175736396666 286485.090653245614 49897 1.1030205e-005 4.958968115286 26054.961401802 27069.284159058
1	325988108 2334165 5991924 6591046 260431.175736396666 286485.090653245614 49897 24.923591078857 25.401344938904 1255372.5222855 31584971.036581
2	328322273 2334068 5991924 6591046 260431.175736396666 286485.090653245614 49897 23.962484438102 24.439608173233 1207401.1187569 29217237.509082
3	330656341 2333355 5991922 6591074 260431.069615614112 286485.905090698578 49885 24.229822434411 24.538526718601 1215858.2239893 29634661.015576
4	332989696 2333314 5991922 6591074 260431.069615614112 286485.905090698578 49885 23.271290174403 23.579552509811 1168028.6104745 27348995.531793
5	335323010 2333694 5991936 6591070 260431.331197201527 286485.799720060922 49885 24.04149000213 24.590253748558 1212001.3469761 29447552.062717
6	337656704 2333658 5991936 6591070 260431.331197201527 286485.799720060922 49885 23.082503959323 23.630767012687 1164153.6819199 27168439.228277
7	339990362 2333248 5991926 6591064 260431.17794123943 286485.600351147783 49879 23.54297105759 23.964249909813 1183851.0503 28098431.293263
8	342323610 2333215 5991926 6591064 260431.17794123943 286485.600351147783 49879 22.584411189276 23.00549496544 1136041.8277121 25874804.394724
9	344656825 2340475 5991954 6591072 260432.212837176934 286485.821237909446 50034 22.054145968383 22.903267036144 1118860.8728572 25021951.02132
10	346997300 2390407 5991954 6591072 260432.212837176934 286485.821237909446 50034 21.093522829372 21.941947476896 1070782.0539113 22917869.834842
11	349387707 2388729 5991928 6591076 260431.17845054133 286485.994969432481 49998 3.567522328573 134.82665755033 3144082.0372858 230194528.16503
12	351776436 2338831 5991928 6591076 260431.17845054133 286485.994969432481 49998 2.475994e-005 5.832561211837 26055.19453929 27167.5758357
13	354115267 2388838 5991928 6591076 260431.17845054133 286485.994969432481 49998 62.184067243528 62.897664653514 3127676.4461735 195657391.71151
0	356504105 2284967 6591083 7190253 286486.137138198559 312646.326122764681 49918 7.842307e-006 5.471043319304 26162.16202688 27416.192944054
1	358789072 2334881 6591084 7190242 286486.137138198559 312645.949324952273 49917 24.924466720664 25.241753273023 1251761.6383866 31390519.687755
2	361123953 2334870 6591084 7190242 286486.137138198559 312645.949324952273 49917 23.963315587322 24.280317324331 1203778.3483838 29030103.063215
3	363458823 2335811 6591090 7190248 286486.270919230506 312646.193903669379 49933 23.723265817224 24.269271871615 1196636.8854966 28678189.329071
4	365794634 2335856 6591090 7190248 286486.270919230506 312646.193903669379 49933 22.765264630748 23.310507295848 1148783.5131243 26430449.377039
5	368130490 2335906 6591078 7190252 286486.034225142381 312646.315408119915 49934 23.949271093194 24.274891995472 1202145.4004358 28941482.787155
6	370466396 2335762 6591078 7190252 286486.034225142381 312646.315408119915 49934 22.990161200376 23.315729899511 1154248.8539524 26681236.652349
7	372802158 2335375 6591080 7190244 286486.056085552968 312646.11045639146 49923 23.125139358982 23.654800182066 1165001.5638663 27187369.777646
8	375137533 2335226 6591080 7190244 286486.056085552968 312646.11045639146 49923 22.167232447444 22.696253072371 1117171.2153457 25000859.172356
9	377472759 2335390 6591094 7190250 286486.378198850512 312646.303712885998 49924 22.583069188746 22.912873625544 1134811.960975 25795451.059504
10	379808149 2385257 6591094 7190250 286486.378198850512 312646.303712885998 49924 21.622529689038 21.951530347665 1086846.6699957 23660955.215545
11	382193406 2386584 6591086 7190212 286486.205540522534 312644.663748471907 49957 5.02821950979 101.10626742462 2638943.1243878 158369431.85093
12	384579990 2336865 6591086 7190212 286486.205540522534 312644.663748471907 49957 1.759969e-006 5.603624747461 26158.668779039 27454.737031512
13	386916855 2386668 6591086 7190212 286486.205540522534 312644.663748471907 49957 61.941259836723 62.770579241445 3106740.0980323 193204846.98929
0	389303523 2288236 7190277 7789401 312648.299165079193 338565.316034409981 49982 9.540663e-006 6.398212526113 25918.663933881 26982.213873321
1	391591759 2338064 7190254 7789402 312646.326122764681 338565.316034409981 49983 24.94923069801 25.20063893925 1253206.6014266 31421487.392226
2	393929823 2337970 7190254 7789402 312646.326122764681 338565.316034409981 49983 23.988380282854 24.239178621105 1205165.8588224 29058642.566128
3	396267793 2336415 7190264 7789410 312647.058837200851 338565.425231851287 49945 23.625252765264 24.166081338344 1191194.8522935 28411704.322974
4	398604208 2336518 7190264 7789410 312647.058837200851 338565.425231851287 49945 22.666732939254 23.207016474219 1143313.369686 26173645.106455
5	400940726 2336324 7190256 7789408 312646.721659012282 338565.411478888747 49945 23.924279734056 25.073407354391 1232256.7070052 30408217.796752
6	403277050 2336305 7190256 7789408 312646.721659012282 338565.411478888747 49945 22.965192969379 24.113145800765 1184319.7577162 28088789.815619
7	405613355 2334345 7190274 7789406 312647.892524673126 338565.380829356985 49900 23.082218634495 24.30690187645 1188460.4755111 28314826.42814
8	407947700 2334158 7190274 7789406 312647.892524673126 338565.380829356985 49900 22.124459416095 23.348469977605 1140651.2511127 26083295.462772
9	410281858 2334194 7190262 7789414 312646.966696787716 338565.487420710346 49901 22.653929752717 23.154679986061 1140704.4609164 26076665.937059
10	412616052 2384169 7190262 7789414 312646.966696787716 338565.487420710346 49901 21.693286137063 22.193044488326 1092743.0553904 23930026.04045
11	415000221 2384369 7190258 7789394 312646.808124928654 338565.051312172427 49907 9.36774160103 152.74714969976 3950028.543047 357861585.91691
12	417384590 2334626 7190258 7789394 312646.808124928654 338565.051312172427 49907 1.0168981e-005 5.950587138497 25920.3875637 26850.827366296
13	419719216 2384363 7190258 7789394 312646.808124928654 338565.051312172427 49907 61.855361455505 63.323309356618 3131990.2935237 196565033.07601
0	422103579 2284485 7789433 8388601 338566.963098960113 364583.59912689523 49904 3.7095751e-005 6.22731076992 26018.211064574 27315.834523786
1	424388064 2334387 7789434 8388602 338566.963098960113 364583.59912689523 49904 24.897844447751 25.303956221624 1254838.6383853 31553595.586397
2	426722451 2334394 7789434 8388602 338566.963098960113 364583.59912689523 49904 23.936539385894 24.342239378227 1206848.6828091 29186323.596255
3	429056845 2334983 7789428 8388616 338566.734504324218 364583.983115366742 49915 24.083531570914 24.393196683703 1211066.3444138 29383889.163326
4	431391828 2334958 7789428 8388616 338566.734504324218 364583.983115366742 49915 23.12420663246 23.433769337823 1163176.1666756 27105958.570393
5	433726786 2334526 7789420 8388620 338566.258297459894 364584.404966723844 49909 24.572878202376 25.026769132146 1237888.4120215 30704032.359098
6	436061312 2334620 7789420 8388620 338566.258297459894 364584.404966723844 49909 23.612813797052 24.066558598405 1189962.9506391 28372671.234652
7	438395932 2337689 7789416 8388622 338565.655314761312 364584.548167805047 49975 23.568039928625 23.975995229773 1190717.5473595 28370971.694944
8	440733621 2337822 7789416 8388622 338565.655314761312 364584.548167805047 49975 22.609727164887 23.017629789629 1142820.7077904 26134471.445073
9	443071443 2337156 7789432 8388606 338566.763713535383 364583.713137384844 49963 22.890640962173 23.179613200307 1150572.2667342 26496207.223841
10	445408599 2387272 7789432 8388606 338566.763713535383 364583.713137384844 49963 21.929429489582 22.217834228703 1102529.2191411 24329685.863929
11	447795871 2386029 7789418 8388624 338565.924316014083 364584.557856603692 49939 7.124931722043 123.62047395887 2713995.8145868 171660585.28343
12	450181900 2336126 7789418 8388618 338565.924316014083 364584.023171481413 49938 1.4005657e-005 5.627295728868 26018.971859309 27208.308564028
13	452518026 2385878 7789418 8388618 338565.924316014083 364584.023171481413 49938 62.62717606361 63.496353061637 3154100.670132 199216613.43371
0	454903904 2287587 8388641 8987777 364585.174163534104 390595.014783816255 49972 2.328834e-005 5.200464096287 26010.736413328 27144.566931702
1	457191491 2337600 8388642 8987778 364585.174163534104 390595.014783816255 49972 24.569626090547 24.913891645847 1235126.6386931 30528194.976643
2	459529091 2337431 8388642 8987778 364585.174163534104 390595.014783816255 49972 23.608782555539 23.952500941168 1187104.6605559 28200483.367071
3	461866522 2336443 8388628 8987798 364584.582550149739 390595.562162691922 49949 23.838360227354 24.152853306273 1199312.140786 28796849.629698