file 134083373 1458590448                                       
version 2
run MAP-0-20160322-02:59:31-2992
attr configname MAP
attr datetime 20160322-02:59:31
attr experiment MAP
attr inifile omnetpp.ini
attr iterationvars ""
attr iterationvars2 $repetition=0
attr measurement ""
attr network MAPm1
attr processid 2992
attr repetition 0
attr replication #0
attr resultdir results
attr runnumber 0
attr seedset 0

vector 0  MAPm1.queue  queue_length  ETV
vector 1  MAPm1.queue  wait_length  ETV
vector 2  MAPm1.sink  Delay  ETV
vector 3  MAPm1.sink  departure_time  ETV
vector 4  MAPm1.sink  line_delay  ETV
0	565 6679223 2 559242 0 1399679.68199261084 139811 0 0.10727969348659 10701.24588879 819.82188079227
1	6679788 6816591 2 559238 0 1399672.745923739134 139810 0 0.011494252873563 674.39924432679 3.2731676187386
2	13496379 6261309 4 559240 0.929802106037 1399673.546949020497 139810 2.00549e-006 7.590502218909 75423.307571829 81460.568280241
3	19757688 6308360 4 559240 0.929802106037 1399673.546949020497 139810 0.000243208838 131.23802593793 1399673.546949 33622764.145245
4	26066048 6541443 4 559240 0.929802106037 1399673.546949020497 139810 0.412420271353 0.929802106037 75107.949993331 40351.277464518
0	32607491 6849231 559246 1118482 1399686.771185853536 2795112.669633431162 139810 0.076180822130271 0.077121612926289 10696.351445063 818.34373639776
1	39456722 6988608 559242 1118482 1399679.68199261084 2795112.669633431162 139811 0.0047786757076678 0.0050217872705193 682.46010286937 3.3317406611078
2	46445330 6429704 559244 1118480 1399680.148125990856 2795111.742869337549 139810 6.68922e-007 6.461170718465 75368.105800133 81133.494865006
3	52875034 6476511 559244 1118480 1399680.148125990856 2795111.742869337549 139810 3.024129e-006 141.15238905617 1395438.1959203 33381165.180419
4	59351545 6709205 559244 1118480 1399680.148125990856 2795111.742869337549 139810 0.53820749224333 0.53955667376169 75351.431089887 40611.114454077
0	66060750 6959172 1118486 1677722 2795116.229703468758 4188501.081486010567 139810 0.076577435158908 0.077214655174825 10750.936899792 826.71606265227
1	73019922 7098723 1118486 1677722 2795116.229703468758 4188501.081486010567 139810 0.004882702217573 0.0050842434672909 695.83881006829 3.4635816151504
2	80118645 6540054 1118484 1677724 2795112.839668579829 4188501.352312684039 139811 1.88209e-006 6.561527246803 75688.065684893 82010.92784462
3	86658699 6586481 1118484 1677720 2795112.839668579829 4188487.840409125161 139810 0.000109738488 137.33609998719 1393376.0975398 33529804.222866
4	93245180 6819689 1118484 1677720 2795112.839668579829 4188487.840409125161 139810 0.5392058153056 0.54035494037013 75481.079897592 40750.986099189
0	100064869 6959541 1677726 2236964 4188503.750429043697 5584944.637964562868 139811 0.076711801546482 0.077143883116009 10753.240501569 827.06240017835
1	107024410 7099120 1677726 2236964 4188503.750429043697 5584944.637964562868 139811 0.0049014540525253 0.0050549363594683 694.1716450419 3.446876156944
2	114123530 6540022 1677728 2236960 4188503.758613909858 5584940.313913364141 139809 4.223682e-006 6.71731478028 75382.94387687 81288.1891683
3	120663552 6586785 1677724 2236960 4188501.352312684039 5584940.313913364141 139810 8.9787557e-005 143.77127168733 1396452.4735042 33429270.536338
4	127250337 6819749 1677724 2236960 4188501.352312684039 5584940.313913364141 139810 0.53927320392374 0.54007183906509 75450.264716278 40717.710779836
0	134070086 2684 2236970 2237182 5584971.75213318476 5585540.729370435268 54 0.076868749899426 0.076874385337506 4.1510684943302 0.31909943800824
1	134072770 2741 2236970 2237182 5584971.75213318476 5585540.729370435268 54 0.0049580186520197 0.0049584885282426 0.26774569347389 0.0013275510449905
2	134075511 2579 2236966 2237180 5584945.228750949464 5585540.593801262274 55 0.01258490235 1.859842442397 31.584182001 29.146249602633
3	134078090 2597 2236966 2237180 5584945.228750949464 5585540.593801262274 55 0.108435782795 56.940953670418 600.27988789813 13662.692458647
4	134080687 2686 2236966 2237180 5584945.228750949464 5585540.593801262274 55 0.53977121398153 0.53977781281213 29.687591001302 16.024601081197
