file 1085990665 1458586563                                      
version 2
run MM1-0-20160322-01:47:40-1064
attr configname MM1
attr datetime 20160322-01:47:40
attr experiment MM1
attr inifile omnetpp.ini
attr iterationvars ""
attr iterationvars2 $repetition=0
attr measurement ""
attr network MM1
attr processid 1064
attr repetition 0
attr replication #0
attr resultdir results
attr runnumber 0
attr seedset 0

vector 0  MM1.gen  gene_time  ETV
vector 1  MM1.queue  queue_length  ETV
vector 2  MM1.queue  wait_length  ETV
vector 3  MM1.sink  Delay  ETV
vector 4  MM1.sink  departure_time  ETV
vector 5  MM1.sink  line_delay  ETV
0	588 5051747 1 466031 0.414993484495 60621.393571465956 116518 1.0444339e-005 7.446649966569 60622.087005926 62981.530066549
1	5052335 5166785 2 466032 0.414993484495 60621.393571465956 116518 0 79.706566132579 3563412.9331409 117496069.38352
2	10219120 5166949 2 466032 0.414993484495 60621.393571465956 116518 0 78.717876217405 3451287.1353459 110734371.49925
3	15386069 5111585 6 466034 1.042958863518 60621.432207360573 116499 1.4607425e-005 72.12864449838 1750916.2558459 49957143.415678
4	20497654 5051105 6 466034 1.042958863518 60621.432207360573 116499 1.656942e-006 8.727252255942 60621.43220736 63094.294834698
5	25548759 5167555 6 466034 1.042958863518 60621.432207360573 116499 0.455767953329 42.256844496937 1858309.2549342 32109521.663258
0	30716314 5141242 466039 932067 60622.501999410598 121567.607587117276 116501 7.209689e-006 7.211780428552 60945.322028654 64001.43709685
1	35857556 5257898 466040 932068 60622.501999410598 121567.607587117276 116501 24.255049523968 28.957011302878 3042240.5795423 79613450.117517
2	41115454 5257820 466040 932068 60622.501999410598 121567.607587117276 116501 23.296689817139 27.994859207511 2930423.1781105 73880568.104391
3	46373274 5188212 466036 932062 60621.888588173901 121567.073847076055 116516 0.000135294653 62.402852140799 1201795.3909899 23285958.659806
4	51561486 5142294 466036 932062 60621.888588173901 121567.073847076055 116516 4.450577e-006 6.500620534804 60945.641639715 63531.39601464
5	56703780 5258754 466036 932062 60621.888588173901 121567.073847076055 116516 12.650200828716 15.029398363334 1584237.6381433 21583869.52655
0	61962534 5317261 932069 1398101 121567.824028063877 182127.855462500779 116522 3.137359e-006 7.5031808673 60560.254553602 62889.354590404
1	67279795 5433846 932070 1398102 121567.824028063877 182127.855462500779 116522 23.682007302612 24.812490682489 2812695.2227121 67900788.012256
2	72713641 5433780 932070 1398102 121567.824028063877 182127.855462500779 116522 22.723611015727 23.853267837443 2701012.6751196 62616071.502252
3	78147421 5365980 932072 1398100 121567.857511365248 182127.263433219151 116495 0.000120111498 66.273288569972 1358012.6979169 29960855.612792
4	83513401 5315965 932072 1398100 121567.857511365248 182127.263433219151 116495 1.47382e-006 5.861927243675 60560.189586144 63165.17556398
5	88829366 5432346 932072 1398100 121567.857511365248 182127.263433219151 116495 12.333062238677 12.909557357035 1464433.6140454 18410594.419725
0	94261712 5333623 1398107 1864135 182128.07858166488 242738.587448693511 116509 3.153749e-006 6.574682370387 60610.613630946 62964.943389294
1	99595335 5450293 1398108 1864136 182128.07858166488 242738.587448693511 116509 23.549264550553 24.60101527651 2788092.5307756 66730199.194242
2	105045628 5450143 1398108 1864136 182128.07858166488 242738.587448693511 116509 22.590208565251 23.640226994816 2676316.6733037 61487747.979312
3	110495771 5393091 1398104 1864132 182127.920607564491 242738.233571059293 116508 0.000349479715 74.30855657062 1648635.8968472 43229288.249081
4	115888862 5333185 1398104 1864132 182127.920607564491 242738.233571059293 116508 1.1087285e-005 6.057296650966 60610.970137841 63106.705179012
5	121222047 5449904 1398104 1864132 182127.920607564491 242738.233571059293 116508 12.264682855669 12.803920502561 1451553.3088274 18087396.985747
0	126671951 5333069 1864139 2330169 242738.692212611084 303542.253027966644 116495 7.78692e-007 5.498963329095 60803.992824811 63282.528585085
1	132005020 5449489 1864140 2330170 242738.692212611084 303542.253027966644 116495 23.886362426937 24.584677787911 2822015.3119731 68366692.852275
2	137454509 5449514 1864140 2330170 242738.692212611084 303542.253027966644 116495 22.925592014351 23.623919680053 2710099.6519012 63052046.916187
3	142904023 5386506 1864138 2330164 242738.639770107869 303541.978122692592 116522 6.0779011e-005 51.328830235627 1290275.506125 24419315.093263
4	148290529 5334115 1864138 2330164 242738.639770107869 303541.978122692592 116522 6.68922e-007 6.461170718465 60803.744551632 63538.549519475
5	153624644 5450617 1864138 2330164 242738.639770107869 303541.978122692592 116522 12.444401809377 12.797040960589 1469881.6554738 18543342.299579
0	159075261 5333695 2330171 2796203 303542.685037422895 364598.782879747451 116514 6.866837e-006 6.153333940191 61056.931282028 63987.045766389
1	164408956 5450350 2330172 2796204 303542.685037422895 364598.782879747451 116514 23.765852619865 24.095557161828 2786925.1364926 66661766.308249
2	169859306 5450224 2330172 2796204 303542.685037422895 364598.782879747451 116514 22.805102803651 23.134599673889 2674957.273949 61412992.477686
3	175309530 5386266 2330176 2796202 303543.01362654979 364598.773283338455 116503 2.8563547e-005 57.987025061738 1429356.9117439 31529300.141866
4	180695796 5332886 2330176 2796202 303543.01362654979 364598.773283338455 116503 3.50293e-007 6.835074248183 61056.795160646 64346.004001555
5	186028682 5449678 2330176 2796202 303543.01362654979 364598.773283338455 116503 12.390270945093 12.555289550691 1452712.7859651 18114514.213888
0	191478360 5333420 2796213 3262235 364599.616319451456 425550.816384527415 116508 4.362102e-006 7.861814430802 60951.771224994 63863.806942686
1	196811780 5449801 2796214 3262236 364599.616319451456 425550.816384527415 116508 22.856808622602 23.809657254027 2711542.4280873 63115481.162168
2	202261581 5449878 2796214 3262236 364599.616319451456 425550.816384527415 116508 21.897301840291 22.848745458187 2599669.9384561 58015560.861725
3	207711459 5377181 2796206 3262238 364599.159936325594 425550.88514296446 116509 2.439496e-005 54.203222650074 1146846.3229148 20677359.009624
4	213088640 5333787 2796206 3262238 364599.159936325594 425550.88514296446 116509 7.02799e-007 7.244799736998 60952.111859626 64173.417910835
5	218422427 5450003 2796206 3262238 364599.159936325594 425550.88514296446 116509 11.927401818318 12.415528853676 1414669.3440875 17179363.535338
0	223872430 5334595 3262241 3728269 425551.387544445407 486402.20567074799 116529 1.4761608e-005 7.091839398479 60852.432181828 63732.888436432
1	229207025 5451091 3262242 3728270 425551.387544445407 486402.20567074799 116529 22.663850425232 23.404394994428 2675291.5950773 61423291.475354
2	234658116 5451007 3262242 3728270 425551.387544445407 486402.20567074799 116529 21.704619220766 22.444762896217 2563487.2626409 56396912.509375
3	240109123 5383046 3262240 3728272 425551.259155883083 486403.316273007185 116488 0.000147368005 75.099510989975 1538031.7048167 43204597.477208
4	245492169 5332855 3262240 3728272 425551.259155883083 486403.316273007185 116488 1.88209e-006 7.200191682076 60852.431130043 63346.734020673
5	250825024 5449150 3262240 3728272 425551.259155883083 486403.316273007185 116488 11.835072158065 12.206288966808 1395784.3274745 16725470.74111
0	256274174 5333633 3728275 4194305 486403.819726273356 547064.56734863227 116512 7.41664e-007 7.005229721848 60661.435536185 62904.539811225
1	261607807 5450219 3728276 4194306 486403.819726273356 547064.56734863227 116512 23.104439916656 23.441745849595 2712156.0218678 63134136.545146
2	267058026 5450065 3728276 4194306 486403.819726273356 547064.56734863227 116512 22.144597705527 22.481535455564 2600318.166907 58034783.435168
3	272508091 5386884 3728274 4194300 486403.461837905361 547063.515169436604 116505 2.561971e-005 68.493441254566 1431369.6930398 32568573.726128
4	277894975 5333314 3728274 4194300 486403.461837905361 547063.515169436604 116505 2.057528e-006 5.623712271229 60660.198896429 63080.456922876
5	283228289 5449623 3728274 4194300 486403.461837905361 547063.515169436604 116505 12.05347526234 12.22561020449 1414590.2939813 17176003.528151
0	288677912 5332990 4194309 4660339 547065.2552624579 607711.588895964624 116498 5.346221e-006 6.461666620008 60646.985753332 62844.054064237
1	294010902 5449763 4194310 4660340 547065.2552624579 607711.588895964624 116498 23.24238093684 23.521867591681 2727358.826508 63851361.429679
2	299460665 5449437 4194310 4660340 547065.2552624579 607711.588895964624 116498 22.282447684695 22.561566121441 2615511.5650649 58721783.293805
3	304910102 5386111 4194308 4660334 547064.961730914571 607710.44904833797 116519 0.000165259648 60.071184681421 1330311.8208215 27292384.043715
4	310296213 5334127 4194308 4660334 547064.961730914571 607710.44904833797 116519 1.1008121e-005 5.266591746182 60646.933878901 62960.541087798
5	315630340 5450743 4194308 4660334 547064.961730914571 607710.44904833797 116519 12.123094668197 12.266236699466 1422744.0139342 17372440.280652
0	321081083 5332400 4660343 5126371 607712.241015790294 668771.891360303365 116489 9.71362e-007 7.033435861992 61060.883823247 64011.338236872
1	326413483 5449139 4660344 5126372 607712.241015790294 668771.891360303365 116489 22.892704078072 23.245500399516 2685310.3391331 61903188.31893
2	331862622 5448864 4660344 5126372 607712.241015790294 668771.891360303365 116489 21.933417350449 22.285540428388 2573531.9187481 56856997.730612
3	337311486 5382392 4660342 5126374 607712.219799069929 668772.082757586503 116528 2.3552538e-005 59.838999878928 1222011.5528718 23410637.486197
4	342693878 5334584 4660342 5126374 607712.219799069929 668772.082757586503 116528 1.95159e-006 5.269054592221 61061.633709249 64011.718241298
5	348028462 5451159 4660342 5126374 607712.219799069929 668772.082757586503 116528 11.944763183119 12.12471848195 1401159.240804 16848181.791949
0	353479621 5333568 5126379 5592405 668773.124839038859 729344.268467647783 116509 1.6329e-006 6.396043248801 60571.643081749 63172.000120843
1	358813189 5450232 5126380 5592406 668773.124839038859 729344.268467647783 116509 22.867100365423 23.54273735771 2700308.6613618 62592545.48762
2	364263421 5450161 5126380 5592406 668773.124839038859 729344.268467647783 116509 21.907718038345 22.582841205288 2588504.0537126 57517273.722061
3	369713582 5389202 5126376 5592408 668772.863712742528 729344.732811566457 116508 9.156498e-006 100.45505863593 1711754.7877619 54773024.677507
4	375102784 5333499 5126376 5592408 668772.863712742528 729344.732811566457 116508 4.21204e-006 5.993471763541 60572.650053981 63323.760204404
5	380436283 5450074 5126376 5592408 668772.863712742528 729344.732811566457 116508 11.931779104331 12.276280177658 1408659.3320111 17033711.830061
0	385886357 5333563 5592409 6058441 729344.767920787855 790269.913828692087 116507 3.890925e-006 7.468371164139 60927.030801318 63894.666890262
1	391219920 5450084 5592410 6058442 729344.767920787855 790269.913828692087 116507 23.317690678942 23.490248814841 2725540.4822754 63760939.469768
2	396670004 5449992 5592410 6058442 729344.767920787855 790269.913828692087 116507 22.35827147323 22.530479818047 2613730.7030991 58636931.266124
3	402119996 5386380 5592412 6058440 729345.54198574312 790269.317424689854 116510 2.0337471e-005 63.583615758628 1448694.9876536 33448633.374759
4	407506376 5333612 5592412 6058440 729345.54198574312 790269.317424689854 116510 7.50413e-007 6.471133987915 60924.584613123 63881.385731106
5	412839988 5450076 5592412 6058440 729345.54198574312 790269.317424689854 116510 12.164356128929 12.253138306788 1421826.3080174 17351271.065479
0	418290064 5334149 6058445 6524475 790271.798722106169 851031.112627202916 116520 6.91523e-007 6.29358758434 60760.957045968 63525.255249745
1	423624213 5450565 6058446 6524476 790271.798722106169 851031.112627202916 116520 23.39764819683 23.586635441962 2735210.1431232 64206976.259739
2	429074778 5450404 6058446 6524476 790271.798722106169 851031.112627202916 116520 22.437761114968 22.626601009121 2623353.538883 59062874.234701
3	434525182 5384681 6058444 6524474 790271.067286671484 851030.529967519107 116497 0.000111080238 67.806449337402 1448617.7863275 34938429.74418
4	439909863 5332909 6058444 6524474 790271.067286671484 851030.529967519107 116497 9.11532e-007 6.717537422877 60761.21254283 63431.600009929
5	445242772 5449469 6058444 6524474 790271.067286671484 851030.529967519107 116497 12.206197801496 12.301503524996 1426437.2498521 17465934.355924
0	450692241 5333228 6524483 6990509 851032.755768073803 911581.049012666726 116507 1.626102e-006 5.99544160597 60548.553093246 62968.19407086
1	456025469 5449858 6524484 6990510 851032.755768073803 911581.049012666726 116507 23.442384317644 23.955496681934 2756730.2614253 65232354.079609
2	461475327 5449508 6524484 6990510 851032.755768073803 911581.049012666726 116507 22.482359309546 22.995085687986 2644856.1093472 60045557.653148
3	466924835 5392893 6524478 6990508 851031.692742730686 911580.629501201229 116510 0.000226147734 89.270017257864 1808847.9500465 56957318.496518
4	472317728 5333581 6524478 6990508 851031.692742730686 911580.629501201229 116510 6.280646e-006 5.692960575105 60550.099533682 62972.584749794
5	477651309 5450099 6524478 6990508 851031.692742730686 911580.629501201229 116510 12.22845180261 12.488544652681 1437547.7067826 17738073.930196
0	483101408 5333145 6990511 7456543 911581.308861320327 972628.222529920405 116510 2.558253e-006 6.483223078411 61048.836550191 64181.090062565
1	488434553 5449986 6990512 7456544 911581.308861320327 972628.222529920405 116510 23.782072818682 24.334933574896 2794160.4685157 67013265.717968
2	493884539 5450141 6990512 7456544 911581.308861320327 972628.222529920405 116510 22.822128250677 23.374692200461 2682301.2028789 61755404.328326
3	499334680 5388332 6990516 7456540 911581.615509096104 972627.2949493539 116507 0.000228956833 121.06727105152 1805333.0192417 66698952.73171
4	504723012 5333532 6990516 7456540 911581.615509096104 972627.2949493539 116507 3.666863e-006 6.312397927537 61046.665448154 63757.042353275
5	510056544 5449830 6990516 7456540 911581.615509096104 972627.2949493539 116507 12.402037447882 12.683344118885 1456686.6550066 18213804.506701
0	515506374 5397330 7456549 7922577 972630.145411512119 1033330.24495611267 116498 9.31541e-007 6.398239947141 60700.223845231 63166.46866511
1	520903704 5513945 7456550 7922578 972630.145411512119 1033330.24495611267 116498 24.073589018117 24.257792041299 2813333.5991253 67940028.650683
2	526417649 5513506 7456550 7922578 972630.145411512119 1033330.24495611267 116498 23.113418470785 23.297573210805 2701473.295706 62644762.295146
3	531931155 5448790 7456546 7922574 972629.002545258989 1033329.915512015264 116519 0.000114420947 60.58405104391 1295522.5324696 25342651.281182
4	537379945 5398544 7456546 7922574 972629.002545258989 1033329.915512015264 116519 9.87552e-007 5.83781910588 60702.620562662 63184.283322688
5	542778489 5515029 7456546 7922574 972629.002545258989 1033329.915512015264 116519 12.550738082988 12.644460332136 1466878.6135475 18466870.056972
0	548293518 5451055 7922579 8388611 1033330.369256742891 1093994.096693368185 116535 8.420116e-006 6.227337458509 60663.748954588 63372.483065339
1	553744573 5567573 7922580 8388612 1033330.369256742891 1093994.096693368185 116535 23.93805759728 24.33968441404 2809594.3677994 67740144.189993
2	559312146 5567471 7922580 8388612 1033330.369256742891 1093994.096693368185 116535 22.977846411809 23.379201965326 2697684.9393907 62451460.36576
3	564879617 5505895 7922584 8388610 1033330.719509281713 1093994.095944314228 116482 2.6141278e-005 81.001495401592 1664151.272893 49811729.311012
4	570385512 5449091 7922584 8388610 1033330.719509281713 1093994.095944314228 116482 9.420533e-006 5.627295728868 60664.180432299 63052.4654371
5	575834603 5565430 7922584 8388610 1033330.719509281713 1093994.095944314228 116482 12.479207224382 12.679842237344 1463639.1572437 18391751.896049
0	581400033 5449007 8388613 8854645 1093994.118211331037 1154868.953070401805 116484 3.1626e-007 6.171204470652 60875.267544835 63914.85920472
1	586849040 5565489 8388614 8854646 1093994.118211331037 1154868.953070401805 116484 23.996887514597 24.35986748694 2816288.1026534 68091942.158514
2	592414529 5565171 8388614 8854646 1093994.118211331037 1154868.953070401805 116484 23.036739524725 23.399399136651 2704431.5311296 62790536.203443
3	597979700 5495439 8388620 8854638 1093995.606253419998 1154868.122713812829 116533 7.135495e-006 53.254957944192 1155360.2859179 20399819.288733
4	603475139 5451341 8388620 8854638 1093995.606253419998 1154868.122713812829 116533 3.582927e-006 5.997414557431 60874.026769498 63607.109623796
5	608926480 5567947 8388620 8854638 1093995.606253419998 1154868.122713812829 116533 12.50683094509 12.690288939985 1468055.9403825 18494543.822797
0	614494427 5449560 8854647 9320675 1154869.385756165565 1215463.3825068636 116506 2.2888757e-005 6.625023410359 60599.42045161 63096.109226706
1	619943987 5566240 8854648 9320676 1154869.385756165565 1215463.3825068636 116506 23.832488391739 24.020423839194 2786923.5510414 66665956.853194
2	625510227 5566309 8854648 9320676 1154869.385756165565 1215463.3825068636 116506 22.872466162129 23.060187534463 2675069.0863782 61422034.848039
3	631076536 5495504 8854654 9320680 1154869.932927812922 1215463.933663363879 116511 4.2083465e-005 76.343823685752 1260020.3335471 28441980.469296
4	636572040 5450150 8854654 9320680 1154869.932927812922 1215463.933663363879 116511 1.053443e-006 6.440310024078 60595.81094955 62792.345930997
5	642022190 5566591 8854654 9320680 1154869.932927812922 1215463.933663363879 116511 12.41937875977 12.517639432124 1452340.6353878 18103909.864737
0	647588781 5451759 9320685 9786713 1215468.806207775774 1276201.957602284563 116547 6.594279e-006 6.710946195957 60734.289612562 63481.206391546
1	653040540 5568219 9320686 9786714 1215468.806207775774 1276201.957602284563 116547 23.744925541017 23.904314681219 2777204.2137351 66178376.432345
2	658608759 5568060 9320686 9786714 1215468.806207775774 1276201.957602284563 116547 22.785100440345 22.944281913647 2665323.5035758 60953755.027617
3	664176819 5501529 9320682 9786712 1215464.84106186341 1276201.517867945686 116470 0.000453401627 73.317492123123 1489685.6194409 36573906.121717
4	669678348 5448245 9320682 9786712 1215464.84106186341 1276201.517867945686 116470 1.03842e-007 6.190375543105 60737.584204581 63161.057367164
5	675126593 5564782 9320682 9786712 1215464.84106186341 1276201.517867945686 116470 12.374211514393 12.45496619025 1446236.3327668 17958330.75032
0	680691375 5511317 9786717 10252747 1276203.095820337355 1336936.608717632646 116470 2.530694e-006 5.913665090329 60733.674449545 63211.936030493
1	686202692 5627701 9786718 10252748 1276203.095820337355 1336936.608717632646 116470 23.840148852676 23.981637300663 2785589.3583054 66622533.963235
2	691830393 5627775 9786718 10252748 1276203.095820337355 1336936.608717632646 116470 22.880297311353 23.021641853699 2673787.6094373 61381974.722461
3	697458168 5568864 9786716 10252744 1276202.404270224974 1336936.247652977873 116547 2.512818e-005 68.615302731942 1526186.561371 38766613.960315
4	703027032 5515477 9786716 10252744 1276202.404270224974 1336936.247652977873 116547 5.403446e-006 6.534413116584 60734.729785032 63340.496997039
5	708542509 5631432 9786716 10252744 1276202.404270224974 1336936.247652977873 116547 12.42510217671 12.496165207347 1452559.4992353 18103717.275492
0	714173941 5567064 10252749 10718781 1336936.770269883407 1397682.790122251173 116512 9.588296e-006 7.064648059448 60746.203560175 63170.081079154
1	719741005 5683335 10252750 10718782 1336936.770269883407 1397682.790122251173 116512 23.895851555302 24.024287476508 2790587.5128269 66837641.717481
2	725424340 5683502 10252750 10718782 1336936.770269883407 1397682.790122251173 116512 22.935941377536 23.064239841041 2678740.2203153 61587285.39534
3	731107842 5617388 10252752 10718778 1336936.927046978581 1397681.754163507264 116505 1.9310415e-005 66.734429697391 1415916.2604051 33211710.404798
4	736725230 5566373 10252752 10718778 1336936.927046978581 1397681.754163507264 116505 6.67293e-007 6.491127043744 60745.506510529 63251.908232553
5	742291603 5682408 10252752 10718778 1336936.927046978581 1397681.754163507264 116505 12.453080421726 12.518221534357 1453999.923297 18146157.499977
0	747974011 5567840 10718783 11184813 1397682.973830059405 1458500.038062639053 116530 3.871986e-006 6.176526442331 60817.425980998 63516.02550164
1	753541851 5684123 10718784 11184814 1397682.973830059405 1458500.038062639053 116530 23.879074689961 24.008488572113 2787624.1364261 66685454.906863
2	759225974 5684219 10718784 11184814 1397682.973830059405 1458500.038062639053 116530 22.919203448042 23.048616172489 2675768.8580092 61441231.503313
3	764910193 5622600 10718786 11184816 1397683.667706698942 1458500.331075341349 116487 0.000172780175 69.424529565844 1603170.6200925 41807550.890209
4	770532793 5565572 10718786 11184816 1397683.667706698942 1458500.331075341349 116487 6.138966e-006 5.515037497836 60818.576911835 63818.575276001
5	776098365 5681857 10718786 11184816 1397683.667706698942 1458500.331075341349 116487 12.442540177526 12.510228523042 1452096.3419429 18101469.491478
0	781780222 5565618 11184817 11650849 1458500.399811058565 1519327.898063156122 116485 2.1549966e-005 7.370654949061 60827.950512229 63667.109739996
1	787345840 5681853 11184818 11650850 1458500.399811058565 1519327.898063156122 116485 23.974057902954 24.133028539811 2804311.2347656 67512421.171786
2	793027693 5681817 11184818 11650850 1458500.399811058565 1519327.898063156122 116485 23.014220973085 23.173091035488 2692503.7010966 62236331.14445
3	798709510 5620400 11184820 11650848 1458500.614483628456 1519327.728201631324 116532 0.000281078102 113.40329582213 1599178.6969393 50506135.899371
4	804329910 5567326 11184820 11650848 1458500.614483628456 1519327.728201631324 116532 5.500887e-006 5.328822940487 60827.39712629 63519.961358597
5	809897236 5684223 11184820 11650848 1458500.614483628456 1519327.728201631324 116532 12.492925258238 12.576462793691 1462085.7111869 18344324.905191
0	815581459 5566923 11650853 12116883 1519328.350323287742 1579856.424191960185 116519 3.128982e-006 6.22514015381 60529.747585041 63061.879279045
1	821148382 5683495 11650854 12116884 1519328.350323287742 1579856.424191960185 116519 24.069679498217 24.211895776937 2811764.8333967 67851973.247773
2	826831877 5683433 11650854 12116884 1519328.350323287742 1579856.424191960185 116519 23.109853528855 23.251925454971 2699922.0152643 62561483.144221
3	832515310 5620885 11650852 12116878 1519327.981563150933 1579855.793933535052 116498 0.000145194594 59.715342904941 1455220.4148138 33172017.239169
4	838136195 5566138 11650852 12116878 1519327.981563150933 1579855.793933535052 116498 2.798399e-006 6.016119453731 60528.065731904 63109.393281239
5	843702333 5682498 11650852 12116878 1519327.981563150933 1579855.793933535052 116498 12.543235289028 12.615390776892 1464851.3724934 18419160.103704
0	849384831 5566029 12116889 12582915 1579858.097908328721 1640599.852541055018 116501 1.93398e-007 7.239110568652 60743.644961849 63717.496554077
1	854950860 5682769 12116890 12582916 1579858.097908328721 1640599.852541055018 116501 23.960181642764 24.10214692248 2797890.5625475 67194388.799258
2	860633629 5682734 12116890 12582916 1579858.097908328721 1640599.852541055018 116501 23.0005041747 23.142317831631 2686081.910945 61931295.552788
3	866316363 5616921 12116886 12582918 1579857.526066620911 1640599.87451443131 116516 6.2329737e-005 54.818282883543 1238691.8264618 22659741.348021
4	871933284 5566928 12116886 12582918 1579857.526066620911 1640599.87451443131 116516 2.863825e-006 6.677848016602 60744.080580897 63442.682275156
5	877500212 5683575 12116886 12582918 1579857.526066620911 1640599.87451443131 116516 12.484857765436 12.557515501146 1458004.8732863 18244566.634607
0	883183787 5566438 12582937 13048951 1640601.74287017825 1701363.37012794632 116504 5.889878e-006 6.171640309454 60762.85101561 63437.257817662
1	888750225 5683096 12582938 13048952 1640601.74287017825 1701363.37012794632 116504 23.870791051182 23.960174661828 2786852.8473532 66663420.67906
2	894433321 5682940 12582938 13048952 1640601.74287017825 1701363.37012794632 116504 22.911187742736 23.000497180946 2675049.6254137 61421898.44479
3	900116261 5616933 12582920 13048950 1640600.043114216834 1701363.243811941826 116513 0.00021918486 60.582255956459 1335693.753777 27973321.716596
4	905733194 5566677 12582920 13048950 1640600.043114216834 1701363.243811941826 116513 1.9058715e-005 5.806880677596 60763.369297511 63536.338019102
5	911299871 5683206 12582920 13048950 1640600.043114216834 1701363.243811941826 116513 12.439444071699 12.484855411461 1452390.832571 18104767.331065
0	916983077 5566670 13048957 13514985 1701364.593885788859 1762033.308480996848 116517 6.16495e-007 10.153644580673 60669.306990028 63192.500890024
1	922549747 5683419 13048958 13514986 1701364.593885788859 1762033.308480996848 116517 23.844899557593 23.934583823078 2783585.5030465 66499793.044553
2	928233166 5683474 13048958 13514986 1701364.593885788859 1762033.308480996848 116517 22.885355417437 22.97494368003 2671776.799345 61264874.4506
3	933916640 5617449 13048954 13514978 1701363.765746388577 1762032.233965160771 116500 7.4432882e-005 65.335694503219 1390406.8774318 31239593.378292
4	939534089 5566033 13048954 13514978 1701363.765746388577 1762032.233965160771 116500 5.304725e-006 5.064567222711 60668.990153219 63287.658247599
5	945100122 5682528 13048954 13514978 1701363.765746388577 1762032.233965160771 116500 12.425942079258 12.471212640894 1450288.9907671 18054422.065464
0	950782650 5567472 13514987 13981015 1762033.9008758162 1822586.007996271601 116529 8.69139e-007 5.818026422879 60553.160966299 62701.673042389
1	956350122 5684273 13514988 13981016 1762033.9008758162 1822586.007996271601 116529 23.822395504589 23.914648693402 2782734.7766415 66452314.437406
2	962034395 5684203 13514988 13981016 1762033.9008758162 1822586.007996271601 116529 22.86286690658 22.955012343142 2670909.8675622 61218824.489931
3	967718598 5620732 13514994 13981020 1762034.351239173839 1822586.964938411 116488 0.000290163803 73.919921077611 1521489.024227 38474845.554659
4	973339330 5565826 13514994 13981020 1762034.351239173839 1822586.964938411 116488 1.1623972e-005 6.209479307848 60554.73097325 63008.701840535
5	978905156 5682355 13514994 13981020 1762034.351239173839 1822586.964938411 116488 12.415380672921 12.462545728738 1449713.2199118 18041951.046309
0	984587511 5565802 13981021 14447049 1822587.061842115559 1883190.269976592379 116491 5.876766e-006 6.856240569661 60603.728109457 63121.627055348
1	990153313 5682210 13981022 14447050 1822587.061842115559 1883190.269976592379 116491 23.746270300319 24.0717414369 2780590.649216 66372221.572454
2	995835523 5682477 13981022 14447050 1822587.061842115559 1883190.269976592379 116491 22.786661707952 23.11191225591 2668791.6731242 61142328.543442
3	1001518000 5622440 13981024 14447054 1822587.329656588974 1883190.483496947372 116526 1.2689e-008 113.71245601193 1781909.196632 66945533.699204
4	1007140440 5567695 13981024 14447054 1822587.329656588974 1883190.483496947372 116526 3.876761e-006 6.595882243361 60603.518558537 63138.776060091
5	1012708135 5683946 13981024 14447054 1822587.329656588974 1883190.483496947372 116526 12.377521423029 12.543338552792 1449628.8373212 18034131.034442
0	1018392081 5566483 14447057 14913087 1883190.789951571942 1943958.386096461456 116506 8.2919e-008 6.286390967453 60768.249084176 63069.930851571
1	1023958564 5683024 14447058 14913088 1883190.789951571942 1943958.386096461456 116506 24.00112325814 24.080000232339 2801137.7437257 67347414.98343
2	1029641588 5682789 14447058 14913088 1883190.789951571942 1943958.386096461456 116506 23.04131240833 23.120142103146 2689310.3548076 62077450.492343
3	1035324377 5619982 14447056 14913086 1883190.690257970067 1943957.651028717479 116511 0.000173148873 62.030394666457 1407364.5315891 30686160.177652
4	1040944359 5566588 14447056 14913086 1883190.690257970067 1943957.651028717479 116511 2.12923e-007 5.594877573909 60767.167531769 63431.843742928
5	1046510947 5683248 14447056 14913086 1883190.690257970067 1943957.651028717479 116511 12.508171520321 12.547624475184 1459772.1182293 18289568.927438
0	1052194195 5566080 14913091 15379119 1943959.039035747971 2004801.918152589336 116504 1.60983e-007 5.478039690362 60843.52240802 63352.357366598
1	1057760275 5682769 14913092 15379120 1943959.039035747971 2004801.918152589336 116504 23.850667371344 24.042217020543 2789441.1083317 66787554.951468
2	1063443044 5682728 14913092 15379120 1943959.039035747971 2004801.918152589336 116504 22.890906802095 23.082358823083 2677623.9185361 61540422.835875
3	1069125772 5609781 14913090 15379122 1943958.730874732202 2004802.282245641387 116513 4.9166237e-005 55.772038828458 1083641.079011 17491506.878926
4	1074735553 5566538 14913090 15379122 1943958.730874732202 2004802.282245641387 116513 2.757886e-006 5.691862865272 60844.631216924 63462.416495257
5	1080302091 5683057 14913090 15379122 1943958.730874732202 2004802.282245641387 116513 12.431006020375 12.528838353055 1453926.9460832 18143150.607213
0	1085985148 1145 15379123 15379193 2004802.561443767373 2004811.868731930126 24 0.009246468852 1.170818225586 9.856592021571 6.7719137885823